# Force and moment coefficients
# dragDir     : (1.000000e+00 0.000000e+00 0.000000e+00)
# sideDir     : (0.000000e+00 1.000000e+00 0.000000e+00)
# liftDir     : (0.000000e+00 0.000000e+00 1.000000e+00)
# rollAxis    : (1.000000e+00 0.000000e+00 0.000000e+00)
# pitchAxis   : (0.000000e+00 1.000000e+00 0.000000e+00)
# yawAxis     : (0.000000e+00 0.000000e+00 1.000000e+00)
# magUInf     : 1.701500e+02
# lRef        : 1.000000e+00
# Aref        : 1.000000e+00
# CofR        : (-4.987236e+00 0.000000e+00 0.000000e+00)
#
# Time        	Cd            	Cd(f)         	Cd(r)         	Cl            	Cl(f)         	Cl(r)         	CmPitch       	CmRoll        	CmYaw         	Cs            	Cs(f)         	Cs(r)         
1             	6.730623e+01	3.372878e+01	3.357745e+01	6.863330e-02	-7.699933e-01	8.386266e-01	-8.043099e-01	7.566525e-02	-1.094409e+01	3.704951e-01	-1.075884e+01	1.112934e+01
2             	4.785211e+01	2.417243e+01	2.367968e+01	1.393598e-01	-7.121770e-01	8.515368e-01	-7.818569e-01	2.463757e-01	-1.734457e+01	7.569512e-01	-1.696610e+01	1.772305e+01
3             	4.523712e+00	2.420400e+00	2.103311e+00	8.609653e-02	-7.684381e-01	8.545346e-01	-8.114864e-01	1.585444e-01	-3.912075e+00	1.079121e+00	-3.372515e+00	4.451635e+00
4             	-9.892383e+00	-4.887120e+00	-5.005263e+00	1.167232e-02	-4.348128e-01	4.464851e-01	-4.406490e-01	5.907170e-02	3.968032e+00	7.861369e-01	4.361101e+00	-3.574964e+00
5             	-3.871434e+00	-2.016529e+00	-1.854905e+00	-2.920495e-02	1.022112e-01	-1.314161e-01	1.168137e-01	-8.081157e-02	5.357955e+00	5.581473e-01	5.637029e+00	-5.078881e+00
6             	3.384577e+00	1.707302e+00	1.677275e+00	-1.442626e-02	2.160686e-01	-2.304949e-01	2.232818e-01	1.501373e-02	3.411675e+00	5.519330e-01	3.687642e+00	-3.135709e+00
7             	4.791610e+00	2.466504e+00	2.325106e+00	2.141376e-02	-2.794516e-02	4.935892e-02	-3.865204e-02	7.069857e-02	3.001034e+00	7.630580e-01	3.382563e+00	-2.619505e+00
8             	3.237464e+00	1.720774e+00	1.516690e+00	3.918722e-02	-2.524075e-01	2.915947e-01	-2.720011e-01	1.020421e-01	3.565284e+00	8.945866e-01	4.012578e+00	-3.117991e+00
9             	2.114657e+00	1.134698e+00	9.799591e-01	3.763820e-02	-3.067343e-01	3.443725e-01	-3.255534e-01	7.736929e-02	4.119657e+00	8.938434e-01	4.566578e+00	-3.672735e+00
10            	2.081660e+00	1.093497e+00	9.881621e-01	3.114046e-02	-2.793095e-01	3.104500e-01	-2.948797e-01	5.266769e-02	4.431221e+00	8.651808e-01	4.863812e+00	-3.998631e+00
11            	2.421390e+00	1.258291e+00	1.163098e+00	3.227816e-02	-2.819942e-01	3.142724e-01	-2.981333e-01	4.759652e-02	4.615714e+00	8.684610e-01	5.049944e+00	-4.181483e+00
12            	2.579431e+00	1.334145e+00	1.245286e+00	3.619446e-02	-3.060441e-01	3.422385e-01	-3.241413e-01	4.442919e-02	4.905112e+00	9.116295e-01	5.360927e+00	-4.449297e+00
13            	2.582884e+00	1.340199e+00	1.242685e+00	4.106542e-02	-3.491414e-01	3.902068e-01	-3.696741e-01	4.875716e-02	5.202573e+00	9.560029e-01	5.680575e+00	-4.724572e+00
14            	2.546048e+00	1.323357e+00	1.222691e+00	4.464477e-02	-3.858830e-01	4.305277e-01	-4.082053e-01	5.033331e-02	5.435193e+00	9.808180e-01	5.925602e+00	-4.944784e+00
15            	2.537373e+00	1.313308e+00	1.224065e+00	4.762396e-02	-4.128068e-01	4.604308e-01	-4.366188e-01	4.462118e-02	5.670793e+00	9.998770e-01	6.170732e+00	-5.170855e+00
16            	2.543181e+00	1.312102e+00	1.231078e+00	5.080120e-02	-4.370031e-01	4.878043e-01	-4.624037e-01	4.051216e-02	5.941637e+00	1.023565e+00	6.453419e+00	-5.429854e+00
17            	2.543277e+00	1.307386e+00	1.235891e+00	5.344345e-02	-4.631880e-01	5.166314e-01	-4.899097e-01	3.574738e-02	6.246833e+00	1.054317e+00	6.773991e+00	-5.719675e+00
18            	2.540728e+00	1.301555e+00	1.239173e+00	5.523397e-02	-4.788089e-01	5.340429e-01	-5.064259e-01	3.119111e-02	6.515572e+00	1.082822e+00	7.056983e+00	-5.974161e+00
19            	2.540632e+00	1.295389e+00	1.245244e+00	5.782310e-02	-5.014316e-01	5.592547e-01	-5.303432e-01	2.507241e-02	6.775521e+00	1.110541e+00	7.330792e+00	-6.220251e+00
20            	2.543698e+00	1.291547e+00	1.252152e+00	5.966584e-02	-5.185745e-01	5.782403e-01	-5.484074e-01	1.969746e-02	7.029379e+00	1.137686e+00	7.598222e+00	-6.460536e+00
21            	2.546611e+00	1.284973e+00	1.261638e+00	6.130456e-02	-5.376282e-01	5.989328e-01	-5.682805e-01	1.166776e-02	7.300687e+00	1.167025e+00	7.884199e+00	-6.717174e+00
22            	2.547068e+00	1.277106e+00	1.269962e+00	6.257610e-02	-5.521427e-01	6.147188e-01	-5.834308e-01	3.572169e-03	7.574509e+00	1.197239e+00	8.173129e+00	-6.975889e+00
23            	2.544907e+00	1.269112e+00	1.275795e+00	6.400212e-02	-5.637278e-01	6.277299e-01	-5.957288e-01	-3.341708e-03	7.855803e+00	1.228458e+00	8.470031e+00	-7.241574e+00
24            	2.541712e+00	1.262785e+00	1.278927e+00	6.510396e-02	-5.688154e-01	6.339194e-01	-6.013674e-01	-8.070846e-03	8.125320e+00	1.258603e+00	8.754621e+00	-7.496018e+00
25            	2.537569e+00	1.256468e+00	1.281101e+00	6.666495e-02	-5.782713e-01	6.449363e-01	-6.116038e-01	-1.231602e-02	8.412591e+00	1.290784e+00	9.057983e+00	-7.767199e+00
26            	2.534288e+00	1.248886e+00	1.285403e+00	6.739271e-02	-5.811244e-01	6.485171e-01	-6.148207e-01	-1.825833e-02	8.695706e+00	1.322800e+00	9.357106e+00	-8.034307e+00
27            	2.530899e+00	1.238557e+00	1.292342e+00	6.849814e-02	-5.882204e-01	6.567186e-01	-6.224695e-01	-2.689252e-02	8.985192e+00	1.355332e+00	9.662858e+00	-8.307526e+00
28            	2.527262e+00	1.229402e+00	1.297861e+00	6.855481e-02	-5.852855e-01	6.538403e-01	-6.195629e-01	-3.422938e-02	9.260400e+00	1.386737e+00	9.953769e+00	-8.567031e+00
29            	2.522322e+00	1.220998e+00	1.301324e+00	6.865506e-02	-5.838155e-01	6.524706e-01	-6.181431e-01	-4.016267e-02	9.542560e+00	1.418689e+00	1.025190e+01	-8.833215e+00
30            	2.516287e+00	1.212274e+00	1.304013e+00	6.796681e-02	-5.738984e-01	6.418652e-01	-6.078818e-01	-4.586930e-02	9.814169e+00	1.449610e+00	1.053897e+01	-9.089364e+00
31            	2.508607e+00	1.202612e+00	1.305995e+00	6.798982e-02	-5.733601e-01	6.413499e-01	-6.073550e-01	-5.169107e-02	1.010129e+01	1.482041e+00	1.084231e+01	-9.360268e+00
32            	2.500035e+00	1.194862e+00	1.305173e+00	6.798660e-02	-5.726320e-01	6.406186e-01	-6.066253e-01	-5.515517e-02	1.037915e+01	1.513719e+00	1.113601e+01	-9.622292e+00
33            	2.490552e+00	1.186897e+00	1.303655e+00	6.877509e-02	-5.810804e-01	6.498555e-01	-6.154680e-01	-5.837854e-02	1.066593e+01	1.546180e+00	1.143902e+01	-9.892839e+00
34            	2.481702e+00	1.179017e+00	1.302685e+00	6.877630e-02	-5.820503e-01	6.508266e-01	-6.164385e-01	-6.183409e-02	1.093507e+01	1.576932e+00	1.172354e+01	-1.014661e+01
35            	2.472384e+00	1.170738e+00	1.301647e+00	6.975948e-02	-5.931539e-01	6.629134e-01	-6.280337e-01	-6.545448e-02	1.121594e+01	1.608862e+00	1.202037e+01	-1.041151e+01
36            	2.463941e+00	1.163946e+00	1.299994e+00	6.996539e-02	-5.943534e-01	6.643188e-01	-6.293361e-01	-6.802413e-02	1.147833e+01	1.639233e+00	1.229794e+01	-1.065871e+01
37            	2.456173e+00	1.156817e+00	1.299356e+00	7.085618e-02	-6.043807e-01	6.752369e-01	-6.398088e-01	-7.126955e-02	1.174863e+01	1.670165e+00	1.258372e+01	-1.091355e+01
38            	2.449909e+00	1.150848e+00	1.299061e+00	7.075953e-02	-6.057544e-01	6.765139e-01	-6.411341e-01	-7.410658e-02	1.199567e+01	1.699024e+00	1.284518e+01	-1.114616e+01
39            	2.443251e+00	1.147346e+00	1.295905e+00	7.217327e-02	-6.232897e-01	6.954629e-01	-6.593763e-01	-7.427975e-02	1.225779e+01	1.729338e+00	1.312246e+01	-1.139312e+01
40            	2.438481e+00	1.144881e+00	1.293599e+00	7.233852e-02	-6.268540e-01	6.991925e-01	-6.630232e-01	-7.435905e-02	1.247915e+01	1.755825e+00	1.335706e+01	-1.160123e+01
41            	2.434270e+00	1.143092e+00	1.291179e+00	7.386688e-02	-6.441695e-01	7.180364e-01	-6.811029e-01	-7.404356e-02	1.269753e+01	1.781705e+00	1.358838e+01	-1.180668e+01
42            	2.431676e+00	1.143715e+00	1.287961e+00	7.392533e-02	-6.464527e-01	7.203781e-01	-6.834154e-01	-7.212321e-02	1.288466e+01	1.804820e+00	1.378707e+01	-1.198225e+01
43            	2.429073e+00	1.143197e+00	1.285876e+00	7.544131e-02	-6.633646e-01	7.388059e-01	-7.010852e-01	-7.133967e-02	1.308487e+01	1.828787e+00	1.399926e+01	-1.217048e+01
44            	2.428282e+00	1.144960e+00	1.283322e+00	7.499923e-02	-6.589450e-01	7.339442e-01	-6.964446e-01	-6.918093e-02	1.324837e+01	1.849294e+00	1.417302e+01	-1.232373e+01
45            	2.426627e+00	1.147106e+00	1.279521e+00	7.645806e-02	-6.744026e-01	7.508607e-01	-7.126317e-01	-6.620745e-02	1.341987e+01	1.869962e+00	1.435485e+01	-1.248488e+01
46            	2.426190e+00	1.150799e+00	1.275391e+00	7.575166e-02	-6.675803e-01	7.433319e-01	-7.054561e-01	-6.229598e-02	1.354666e+01	1.886387e+00	1.448986e+01	-1.260347e+01
47            	2.425176e+00	1.154073e+00	1.271103e+00	7.705228e-02	-6.816534e-01	7.587057e-01	-7.201795e-01	-5.851533e-02	1.367653e+01	1.902299e+00	1.462768e+01	-1.272538e+01
48            	2.425373e+00	1.158619e+00	1.266754e+00	7.569197e-02	-6.693567e-01	7.450487e-01	-7.072027e-01	-5.406768e-02	1.376292e+01	1.914115e+00	1.471998e+01	-1.280586e+01
49            	2.423951e+00	1.162388e+00	1.261563e+00	7.673097e-02	-6.827893e-01	7.595203e-01	-7.211548e-01	-4.958724e-02	1.386815e+01	1.927116e+00	1.483171e+01	-1.290459e+01
50            	2.424121e+00	1.167239e+00	1.256882e+00	7.478623e-02	-6.650741e-01	7.398603e-01	-7.024672e-01	-4.482174e-02	1.391752e+01	1.934700e+00	1.488487e+01	-1.295017e+01
